{
  "id": "agno3",
  "formula": "AgNO\u2083",
  "name_ru": "Нитрат серебра",
  "class": "salt",
  "subclass": "normal",
  "ions": ["Ag_plus", "NO3_minus"],
  "tags": ["soluble"],
  "melting_point_C": 212,
  "boiling_point_C": 444,
  "density_g_cm3": 4.35,
  "appearance_ru": "Бесцветные кристаллы, темнеют на свету",
  "hazards_ru": ["Коррозионное", "Вызывает ожоги", "Опасно для окружающей среды"],
  "storage_ru": "Хранить в тёмном месте, в герметичной таре, вдали от органических веществ",
  "industrial_ru": "Производство фотоматериалов, зеркал, антисептиков",
  "production_ru": "Растворение серебра в азотной кислоте",
  "fun_facts_ru": ["Ляписный карандаш (нитрат серебра) применяется в медицине для прижигания ран", "Оставляет несмываемые чёрные пятна на коже из-за восстановления до металлического серебра"]
}
