{
  "id": "al2_so4_3",
  "formula": "Al\u2082(SO\u2084)\u2083",
  "name_ru": "Сульфат алюминия",
  "class": "salt",
  "subclass": "normal",
  "ions": ["Al_3plus", "SO4_2minus"],
  "tags": ["soluble"],
  "melting_point_C": 770,
  "boiling_point_C": null,
  "density_g_cm3": 2.71,
  "appearance_ru": "Белые кристаллы или порошок",
  "industrial_ru": "Очистка воды (коагулянт), производство бумаги, дубление кож",
  "production_ru": "Растворение Al(OH)\u2083 или Al\u2082O\u2083 в серной кислоте",
  "fun_facts_ru": ["Один из самых распространённых коагулянтов для очистки питьевой воды", "При растворении в воде сильно гидролизуется, создавая кислую среду"]
}
