{
  "id": "al2o3",
  "formula": "Al\u2082O\u2083",
  "name_ru": "Оксид алюминия",
  "class": "oxide",
  "subclass": "amphoteric",
  "ions": [],
  "tags": ["insoluble", "amphoteric"],
  "melting_point_C": 2072,
  "boiling_point_C": 2977,
  "density_g_cm3": 3.95,
  "appearance_ru": "Белый кристаллический порошок",
  "industrial_ru": "Производство алюминия (электролиз), абразивных материалов, керамики",
  "production_ru": "Переработка бокситов по способу Байера",
  "fun_facts_ru": ["Корунд, рубин и сапфир — природные формы Al₂O₃, окрашенные примесями", "Один из самых твёрдых оксидов — 9 по шкале Мооса"]
}
