{
  "id": "alcl3",
  "formula": "AlCl\u2083",
  "name_ru": "Хлорид алюминия",
  "class": "salt",
  "subclass": "normal",
  "ions": ["Al_3plus", "Cl_minus"],
  "tags": ["soluble", "hygroscopic"],
  "melting_point_C": 192.4,
  "boiling_point_C": 180,
  "density_g_cm3": 2.48,
  "appearance_ru": "Белый или желтоватый порошок",
  "hazards_ru": ["Коррозионное", "Реагирует бурно с водой"],
  "industrial_ru": "Катализатор Фриделя-Крафтса, производство алюминия",
  "production_ru": "Реакция алюминия с хлором или HCl",
  "fun_facts_ru": ["Безводный AlCl\u2083 — важнейший катализатор в органическом синтезе (реакция Фриделя-Крафтса)", "Температура кипения ниже температуры плавления — при атмосферном давлении возгоняется"]
}
