{
  "id": "bacl2",
  "formula": "BaCl\u2082",
  "name_ru": "Хлорид бария",
  "class": "salt",
  "subclass": "normal",
  "ions": ["Ba_2plus", "Cl_minus"],
  "tags": ["soluble"],
  "melting_point_C": 962,
  "boiling_point_C": 1560,
  "density_g_cm3": 3.86,
  "appearance_ru": "Бесцветные кристаллы",
  "hazards_ru": ["Токсичное", "Опасно при проглатывании"],
  "storage_ru": "Хранить в закрытой таре, в вентилируемом помещении",
  "industrial_ru": "Реактив для обнаружения сульфат-ионов в аналитической химии",
  "production_ru": "Взаимодействие карбоната бария с соляной кислотой",
  "fun_facts_ru": ["Является качественным реактивом на сульфат-ион — даёт белый осадок BaSO₄"]
}
