{
  "id": "baso4",
  "formula": "BaSO\u2084",
  "name_ru": "Сульфат бария",
  "class": "salt",
  "subclass": "normal",
  "ions": ["Ba_2plus", "SO4_2minus"],
  "tags": ["insoluble"],
  "melting_point_C": 1580,
  "boiling_point_C": null,
  "density_g_cm3": 4.5,
  "appearance_ru": "Белый кристаллический порошок",
  "industrial_ru": "Рентгеноконтрастное средство, наполнитель в производстве бумаги и пластмасс",
  "production_ru": "Осаждение из растворов солей бария серной кислотой или сульфатами",
  "fun_facts_ru": ["Используется как «бариевая каша» при рентгене желудка — нерастворим и безвреден", "Минерал барит (BaSO₄) — главный источник бария в промышленности"]
}
