{
  "id": "c2h2",
  "formula": "C\u2082H\u2082",
  "name_ru": "Ацетилен",
  "class": "other",
  "subclass": "alkyne",
  "ions": [],
  "tags": ["gas", "flammable", "triple_bond"],
  "melting_point_C": -80.8,
  "boiling_point_C": -84.0,
  "density_g_cm3": 0.001097,
  "appearance_ru": "Бесцветный газ (технический — с неприятным запахом из-за примесей)",
  "hazards_ru": ["Легковоспламеняемое", "Взрывоопасное"],
  "industrial_ru": "Газовая сварка и резка металлов, производство ПВХ, синтетического каучука",
  "production_ru": "Карбидный метод (CaC\u2082 + H\u2082O), термический крекинг метана",
  "fun_facts_ru": ["Ацетиленовая горелка даёт температуру до 3150°C", "Чистый ацетилен почти не пахнет — неприятный запах даёт примесь фосфина и сероводорода"]
}
