{
  "id": "c2h4",
  "formula": "C\u2082H\u2084",
  "name_ru": "Этилен",
  "class": "other",
  "subclass": "alkene",
  "ions": [],
  "tags": ["gas", "flammable", "plant_hormone"],
  "melting_point_C": -169.2,
  "boiling_point_C": -103.7,
  "density_g_cm3": 0.001178,
  "appearance_ru": "Бесцветный газ со слабым сладковатым запахом",
  "hazards_ru": ["Легковоспламеняемое"],
  "industrial_ru": "Производство полиэтилена, этанола, этиленоксида, стирола",
  "production_ru": "Термический крекинг нефти, дегидратация этанола",
  "fun_facts_ru": ["Самое производимое органическое вещество в мире (более 150 млн тонн/год)", "Фитогормон — ускоряет созревание фруктов"]
}
