{
  "id": "c2h5oh",
  "formula": "C\u2082H\u2085OH",
  "name_ru": "Этанол",
  "class": "other",
  "subclass": "alcohol",
  "ions": [],
  "tags": ["liquid", "flammable", "miscible_with_water"],
  "melting_point_C": -114.1,
  "boiling_point_C": 78.37,
  "density_g_cm3": 0.789,
  "appearance_ru": "Бесцветная летучая жидкость с характерным запахом",
  "hazards_ru": ["Легковоспламеняемое"],
  "industrial_ru": "Растворитель, топливо, антисептик, основа алкогольных напитков",
  "production_ru": "Ферментация сахаров (брожение) или гидратация этилена",
  "fun_facts_ru": ["Один из первых органических веществ, известных человечеству", "Абсолютный этанол (99.95%) получают азеотропной перегонкой с бензолом"]
}
