{
  "id": "c2h6",
  "formula": "C\u2082H\u2086",
  "name_ru": "Этан",
  "class": "other",
  "subclass": "alkane",
  "ions": [],
  "tags": ["gas", "flammable"],
  "melting_point_C": -182.8,
  "boiling_point_C": -88.6,
  "density_g_cm3": 0.001356,
  "appearance_ru": "Бесцветный газ без запаха",
  "hazards_ru": ["Легковоспламеняемое"],
  "industrial_ru": "Производство этилена (пиролиз), топливо",
  "production_ru": "Компонент природного газа (5–10%), попутный нефтяной газ",
  "fun_facts_ru": ["Этан — второй по простоте алкан после метана", "На спутнике Сатурна Титане существуют озёра из жидкого этана и метана"]
}
