{
  "id": "c4h6",
  "formula": "C\u2084H\u2086",
  "name_ru": "Бутадиен-1,3",
  "class": "other",
  "subclass": "diene",
  "ions": [],
  "tags": ["gas", "flammable"],
  "melting_point_C": -108.9,
  "boiling_point_C": -4.4,
  "density_g_cm3": 0.00243,
  "appearance_ru": "Бесцветный газ со слабым запахом",
  "hazards_ru": ["Легковоспламеняемое", "Канцерогенное"],
  "industrial_ru": "Производство синтетического каучука (бутадиеновый, бутадиен-стирольный)",
  "production_ru": "Дегидрирование бутана, побочный продукт крекинга",
  "fun_facts_ru": ["Основа синтетического каучука — изобретение С. В. Лебедева (1910)", "Сопряжённые двойные связи придают молекуле особую устойчивость"]
}
