{
  "id": "c4h8",
  "formula": "C\u2084H\u2088",
  "name_ru": "Бутен-1",
  "class": "other",
  "subclass": "alkene",
  "ions": [],
  "tags": ["gas", "flammable"],
  "melting_point_C": -185.3,
  "boiling_point_C": -6.3,
  "density_g_cm3": 0.00237,
  "appearance_ru": "Бесцветный газ",
  "hazards_ru": ["Легковоспламеняемое"],
  "industrial_ru": "Производство полибутилена, бутадиена, компонент бензина",
  "production_ru": "Крекинг нефти, дегидрирование бутана",
  "fun_facts_ru": ["Существует в виде нескольких изомеров: бутен-1, бутен-2 (цис- и транс-)", "Используется для повышения октанового числа бензина"]
}
