{
  "id": "c6h12o6",
  "formula": "C\u2086H\u2081\u2082O\u2086",
  "name_ru": "Глюкоза",
  "class": "other",
  "subclass": "carbohydrate",
  "ions": [],
  "tags": ["solid", "soluble", "sweet"],
  "melting_point_C": 146,
  "boiling_point_C": null,
  "density_g_cm3": 1.54,
  "appearance_ru": "Белый кристаллический порошок сладкого вкуса",
  "industrial_ru": "Пищевая промышленность, медицина (внутривенное питание), ферментация",
  "production_ru": "Гидролиз крахмала или целлюлозы (кислотный или ферментативный)",
  "fun_facts_ru": ["Основной источник энергии для клеток организма", "Реакция «серебряного зеркала» — качественная реакция на альдегидную группу глюкозы"]
}
