{
  "id": "c6h5cooh",
  "formula": "C\u2086H\u2085COOH",
  "name_ru": "Бензойная кислота",
  "class": "other",
  "subclass": "carboxylic_acid",
  "ions": [],
  "tags": ["solid", "slightly_soluble", "aromatic"],
  "melting_point_C": 122.4,
  "boiling_point_C": 249,
  "density_g_cm3": 1.266,
  "appearance_ru": "Бесцветные игольчатые кристаллы",
  "industrial_ru": "Консервант (E210), производство красителей, фармацевтика",
  "production_ru": "Окисление толуола, гидролиз бензотрихлорида",
  "fun_facts_ru": ["Бензойная кислота — первая органическая кислота, выделенная из природного источника (бензойная смола, XVI век)", "Широко используется как консервант в напитках и продуктах"]
}
