{
  "id": "c6h5oh",
  "formula": "C\u2086H\u2085OH",
  "name_ru": "Фенол",
  "class": "other",
  "subclass": "phenol",
  "ions": [],
  "tags": ["solid", "toxic", "slightly_soluble", "aromatic"],
  "melting_point_C": 40.5,
  "boiling_point_C": 181.7,
  "density_g_cm3": 1.07,
  "appearance_ru": "Бесцветные кристаллы с характерным запахом (розовеют на воздухе)",
  "hazards_ru": ["Токсичное", "Вызывает ожоги", "Всасывается через кожу"],
  "industrial_ru": "Производство фенолформальдегидных смол, бисфенола А, капролактама",
  "production_ru": "Кумольный метод (из бензола и пропилена — одновременно с ацетоном)",
  "fun_facts_ru": ["Первый антисептик, применённый в хирургии (Джозеф Листер, 1865)", "Карболовая кислота (раствор фенола) использовалась для стерилизации операционных"]
}
