{
  "id": "c6h5nh2",
  "formula": "C\u2086H\u2085NH\u2082",
  "name_ru": "Анилин",
  "class": "other",
  "subclass": "amine",
  "ions": [],
  "tags": ["liquid", "toxic", "aromatic"],
  "melting_point_C": -6.0,
  "boiling_point_C": 184.0,
  "density_g_cm3": 1.022,
  "appearance_ru": "Бесцветная маслянистая жидкость, темнеет на воздухе",
  "hazards_ru": ["Токсичное", "Канцерогенное"],
  "industrial_ru": "Производство красителей, полиуретанов, лекарств, резины",
  "production_ru": "Восстановление нитробензола (реакция Зинина)",
  "fun_facts_ru": ["Реакция Зинина (1842) — первый промышленный синтез анилина — основоположник анилинокрасочной промышленности", "Название происходит от португальского «anil» — индиго"]
}
