{
  "id": "c8h18",
  "formula": "C\u2088H\u2081\u2088",
  "name_ru": "Октан",
  "class": "other",
  "subclass": "alkane",
  "ions": [],
  "tags": ["liquid", "flammable"],
  "melting_point_C": -56.8,
  "boiling_point_C": 125.7,
  "density_g_cm3": 0.703,
  "appearance_ru": "Бесцветная жидкость",
  "hazards_ru": ["Легковоспламеняемое"],
  "industrial_ru": "Компонент бензина, эталон октанового числа",
  "production_ru": "Перегонка нефти",
  "fun_facts_ru": ["Изооктан (2,2,4-триметилпентан) — эталон октанового числа 100", "Именно от октана происходит термин «октановое число» бензина"]
}
