{
  "id": "cao",
  "formula": "CaO",
  "name_ru": "Оксид кальция",
  "class": "oxide",
  "subclass": "basic",
  "ions": [],
  "tags": ["reacts_with_water"],
  "melting_point_C": 2613,
  "boiling_point_C": 2850,
  "density_g_cm3": 3.34,
  "appearance_ru": "Белый кристаллический порошок",
  "hazards_ru": ["Коррозионное", "Вызывает ожоги при контакте с влажной кожей"],
  "storage_ru": "Хранить в герметичной таре, беречь от влаги",
  "industrial_ru": "Производство цемента, металлургия, сельское хозяйство",
  "production_ru": "Обжиг известняка при 900–1200 °C: CaCO₃ → CaO + CO₂",
  "fun_facts_ru": ["Негашёная известь при контакте с водой сильно разогревается — реакция идёт с выделением тепла", "Одно из древнейших строительных вяжущих веществ"]
}
