{
  "id": "ch3coch3",
  "formula": "CH\u2083COCH\u2083",
  "name_ru": "Ацетон",
  "class": "other",
  "subclass": "ketone",
  "ions": [],
  "tags": ["liquid", "flammable", "miscible_with_water"],
  "melting_point_C": -94.7,
  "boiling_point_C": 56.05,
  "density_g_cm3": 0.784,
  "appearance_ru": "Бесцветная летучая жидкость с характерным запахом",
  "hazards_ru": ["Легковоспламеняемое"],
  "industrial_ru": "Растворитель (лаки, краски, клеи), производство метилметакрилата, бисфенола А",
  "production_ru": "Кумольный метод (из бензола и пропилена), дегидрирование изопропанола",
  "fun_facts_ru": ["Ацетон — самый распространённый растворитель в мире", "Образуется в организме при голодании — «ацетоновый запах» при диабете"]
}
