{
  "id": "ch3cooc2h5",
  "formula": "CH\u2083COOC\u2082H\u2085",
  "name_ru": "Этилацетат",
  "class": "other",
  "subclass": "ester",
  "ions": [],
  "tags": ["liquid", "flammable", "fruity_smell"],
  "melting_point_C": -83.6,
  "boiling_point_C": 77.1,
  "density_g_cm3": 0.902,
  "appearance_ru": "Бесцветная летучая жидкость с приятным фруктовым запахом",
  "hazards_ru": ["Легковоспламеняемое"],
  "industrial_ru": "Растворитель (лаки, клеи, краски), пищевая промышленность (ароматизатор)",
  "production_ru": "Этерификация уксусной кислоты этанолом (реакция Фишера)",
  "fun_facts_ru": ["Именно этилацетат придаёт характерный запах клею и жидкости для снятия лака", "Пищевая добавка E1504 — используется как ароматизатор"]
}
