{
  "id": "ch3cooh",
  "formula": "CH\u2083COOH",
  "name_ru": "Уксусная кислота",
  "class": "other",
  "subclass": "carboxylic_acid",
  "ions": [],
  "tags": ["liquid", "pungent_odor", "weak_acid"],
  "melting_point_C": 16.6,
  "boiling_point_C": 118.1,
  "density_g_cm3": 1.049,
  "appearance_ru": "Бесцветная жидкость с резким кислым запахом",
  "hazards_ru": ["Коррозионное", "Вызывает ожоги"],
  "industrial_ru": "Производство ацетатных волокон, растворителей, уксуса, винилацетата",
  "production_ru": "Окисление ацетальдегида, ферментация этанола (уксуснокислое брожение)",
  "fun_facts_ru": ["Ледяная уксусная кислота (100%) замерзает при 16.6°C — отсюда название «ледяная»", "Столовый уксус — 6–9% раствор уксусной кислоты в воде"]
}
