{
  "id": "ch3cho",
  "formula": "CH\u2083CHO",
  "name_ru": "Ацетальдегид",
  "class": "other",
  "subclass": "aldehyde",
  "ions": [],
  "tags": ["liquid", "flammable", "volatile"],
  "melting_point_C": -123.4,
  "boiling_point_C": 20.2,
  "density_g_cm3": 0.788,
  "appearance_ru": "Бесцветная летучая жидкость с резким фруктовым запахом",
  "hazards_ru": ["Легковоспламеняемое", "Раздражает дыхательные пути", "Возможный канцероген"],
  "industrial_ru": "Производство уксусной кислоты, этилацетата, парфюмерия",
  "production_ru": "Окисление этанола, реакция Вакера (окисление этилена)",
  "fun_facts_ru": ["Образуется в организме при расщеплении алкоголя — именно ацетальдегид вызывает похмелье", "Кипит при 20°C — почти при комнатной температуре"]
}
