{
  "id": "ch3coona",
  "formula": "CH\u2083COONa",
  "name_ru": "Ацетат натрия",
  "class": "salt",
  "subclass": "normal",
  "ions": ["Na_plus", "CH3COO_minus"],
  "tags": ["soluble"],
  "melting_point_C": 324,
  "boiling_point_C": null,
  "density_g_cm3": 1.528,
  "appearance_ru": "Бесцветные кристаллы",
  "industrial_ru": "Пищевая промышленность (E262), буферные растворы, химические грелки",
  "production_ru": "Нейтрализация уксусной кислоты содой или NaOH",
  "fun_facts_ru": ["Основа популярных химических грелок — при кристаллизации перенасыщенного раствора выделяется тепло", "Водный раствор имеет слабощелочную реакцию (гидролиз по аниону)"]
}
