{
  "id": "ch3oh",
  "formula": "CH\u2083OH",
  "name_ru": "Метанол",
  "class": "other",
  "subclass": "alcohol",
  "ions": [],
  "tags": ["liquid", "flammable", "toxic"],
  "melting_point_C": -97.6,
  "boiling_point_C": 64.7,
  "density_g_cm3": 0.792,
  "appearance_ru": "Бесцветная жидкость со слабым запахом",
  "hazards_ru": ["Токсичное (смертельная доза 30–100 мл)", "Легковоспламеняемое", "Поражает зрительный нерв"],
  "industrial_ru": "Растворитель, производство формальдегида, топливо, антифриз",
  "production_ru": "Каталитический синтез из CO и H\u2082 (синтез-газ)",
  "fun_facts_ru": ["Метанол — простейший спирт и одно из самых токсичных бытовых веществ", "Используется как топливо в гоночных автомобилях «Индианаполис-500»"]
}
