{
  "id": "ch4",
  "formula": "CH\u2084",
  "name_ru": "Метан",
  "class": "other",
  "subclass": "alkane",
  "ions": [],
  "tags": ["gas", "flammable", "greenhouse_gas"],
  "melting_point_C": -182.5,
  "boiling_point_C": -161.5,
  "density_g_cm3": 0.000657,
  "appearance_ru": "Бесцветный газ без запаха",
  "hazards_ru": ["Легковоспламеняемое", "Образует взрывоопасные смеси с воздухом"],
  "industrial_ru": "Топливо (природный газ), производство водорода, сажи, ацетилена",
  "production_ru": "Основной компонент природного газа, биогаз (разложение органики)",
  "fun_facts_ru": ["Метан — второй по значимости парниковый газ после CO\u2082", "Одна корова выделяет до 500 литров метана в день"]
}
