{
  "id": "cl2",
  "formula": "Cl\u2082",
  "name_ru": "Хлор",
  "class": "other",
  "subclass": "simple_substance",
  "ions": [],
  "tags": ["gas", "toxic", "yellow_green", "pungent_odor"],
  "melting_point_C": -101.5,
  "boiling_point_C": -34.04,
  "density_g_cm3": 0.003214,
  "appearance_ru": "Желтовато-зелёный газ с резким удушливым запахом",
  "hazards_ru": ["Токсичное", "Раздражает дыхательные пути", "Коррозионное"],
  "industrial_ru": "Производство ПВХ, дезинфекция воды, отбеливание",
  "production_ru": "Электролиз раствора NaCl (хлор-щелочное производство)",
  "fun_facts_ru": ["Первый отравляющий газ, применённый в Первой мировой войне", "Используется для очистки 98% питьевой воды в мире"]
}
