{
  "id": "cuso4",
  "formula": "CuSO\u2084",
  "name_ru": "Сульфат меди(II)",
  "class": "salt",
  "subclass": "normal",
  "ions": ["Cu_2plus", "SO4_2minus"],
  "tags": ["soluble"],
  "melting_point_C": 110,
  "boiling_point_C": null,
  "density_g_cm3": 3.6,
  "appearance_ru": "Белый порошок (безводный) или синие кристаллы (пентагидрат)",
  "hazards_ru": ["Токсичное", "Опасно для окружающей среды"],
  "industrial_ru": "Сельское хозяйство (фунгицид), гальванотехника, производство красителей",
  "production_ru": "Растворение меди в разбавленной серной кислоте при нагревании с доступом воздуха",
  "fun_facts_ru": ["Пентагидрат CuSO₄·5H₂O (медный купорос) — ярко-синий, теряет воду при нагревании и белеет", "Безводный CuSO₄ используют как индикатор влаги — он синеет при контакте с водой"]
}
