{
  "id": "h2",
  "formula": "H\u2082",
  "name_ru": "Водород",
  "class": "other",
  "subclass": "simple_substance",
  "ions": [],
  "tags": ["gas", "flammable", "lightest"],
  "melting_point_C": -259.16,
  "boiling_point_C": -252.87,
  "density_g_cm3": 0.0000899,
  "appearance_ru": "Бесцветный газ без запаха и вкуса",
  "hazards_ru": ["Легковоспламеняемое", "Образует взрывоопасные смеси с воздухом"],
  "industrial_ru": "Синтез аммиака, гидрирование жиров, ракетное топливо, топливные элементы",
  "production_ru": "Паровая конверсия метана, электролиз воды",
  "fun_facts_ru": ["Самый лёгкий и самый распространённый элемент во Вселенной", "Смесь H\u2082 с воздухом (4–75%) взрывоопасна — «гремучий газ»"]
}
