{
  "id": "h2o2",
  "formula": "H\u2082O\u2082",
  "name_ru": "Пероксид водорода",
  "class": "other",
  "subclass": "peroxide",
  "ions": [],
  "tags": ["liquid", "oxidizer", "unstable"],
  "melting_point_C": -0.43,
  "boiling_point_C": 150.2,
  "density_g_cm3": 1.45,
  "appearance_ru": "Бесцветная жидкость (концентрированная — сиропообразная)",
  "hazards_ru": ["Сильный окислитель", "Вызывает ожоги при высоких концентрациях"],
  "industrial_ru": "Отбеливание, дезинфекция, ракетное топливо, производство эпоксидов",
  "production_ru": "Антрахиноновый процесс (автоокисление 2-этилантрагидрохинона)",
  "fun_facts_ru": ["3%-ный раствор известен как «перекись водорода» в аптечке", "Жуки-бомбардиры используют H\u2082O\u2082 для защитного «взрыва» при температуре ~100\u00b0C"]
}
