{
  "id": "h2s",
  "formula": "H\u2082S",
  "name_ru": "Сероводород",
  "class": "acid",
  "subclass": "oxygen_free",
  "ions": ["H_plus", "S_2minus"],
  "tags": ["gas", "toxic", "rotten_egg_smell", "weak_acid"],
  "melting_point_C": -85.5,
  "boiling_point_C": -60.3,
  "density_g_cm3": 0.001539,
  "appearance_ru": "Бесцветный газ с запахом тухлых яиц",
  "hazards_ru": ["Высокотоксичное", "Легковоспламеняемое"],
  "industrial_ru": "Получение серы, аналитическая химия (осаждение сульфидов)",
  "production_ru": "Реакция сульфидов с кислотами, побочный продукт нефтепереработки",
  "fun_facts_ru": ["Смертельная концентрация всего 0.1% в воздухе", "При высоких концентрациях парализует обоняние — запах перестаёт ощущаться"]
}
