{
  "id": "h3po4",
  "formula": "H\u2083PO\u2084",
  "name_ru": "Фосфорная кислота",
  "class": "acid",
  "subclass": "oxygen_containing",
  "ions": ["H_plus", "PO4_3minus"],
  "tags": ["soluble", "medium_acid", "triprotic"],
  "melting_point_C": 42.35,
  "boiling_point_C": 158,
  "density_g_cm3": 1.88,
  "appearance_ru": "Бесцветные кристаллы, расплывающиеся на воздухе",
  "hazards_ru": ["Коррозионное", "Раздражает кожу и глаза"],
  "industrial_ru": "Производство минеральных удобрений, пищевая добавка (E338), антикоррозийная обработка",
  "production_ru": "Экстракционный или термический способ из апатитов и фосфоритов",
  "fun_facts_ru": ["Содержится в кока-коле и других газированных напитках как регулятор кислотности (E338)", "Фосфорная кислота трёхосновная — может образовывать три ряда солей"]
}
