{
  "id": "hclo4",
  "formula": "HClO\u2084",
  "name_ru": "Хлорная кислота",
  "class": "acid",
  "subclass": "oxygen_containing",
  "ions": [],
  "tags": ["soluble", "strong_acid", "strong_oxidizer"],
  "melting_point_C": -112,
  "boiling_point_C": 203,
  "density_g_cm3": 1.77,
  "appearance_ru": "Бесцветная дымящая жидкость",
  "hazards_ru": ["Сильный окислитель", "Коррозионное", "Взрывоопасное при контакте с органикой"],
  "industrial_ru": "Аналитическая химия, производство перхлоратов (ракетное топливо)",
  "production_ru": "Реакция NaClO\u2084 с HCl или электрохимическое окисление",
  "fun_facts_ru": ["Самая сильная из хлорсодержащих кислот", "Перхлорат аммония NH\u2084ClO\u2084 — основной компонент твёрдого ракетного топлива"]
}
