{
  "id": "kbr",
  "formula": "KBr",
  "name_ru": "Бромид калия",
  "class": "salt",
  "subclass": "normal",
  "ions": ["K_plus", "Br_minus"],
  "tags": ["soluble"],
  "melting_point_C": 734,
  "boiling_point_C": 1435,
  "density_g_cm3": 2.74,
  "appearance_ru": "Бесцветные кубические кристаллы",
  "industrial_ru": "Фотография (светочувствительные материалы), медицина (седативное)",
  "production_ru": "Реакция KOH с бромом или HBr",
  "fun_facts_ru": ["В XIX веке широко использовался как успокоительное средство", "Кристаллы KBr прозрачны для инфракрасного излучения — используются в ИК-спектроскопии"]
}
