{
  "id": "kcl",
  "formula": "KCl",
  "name_ru": "Хлорид калия",
  "class": "salt",
  "subclass": "normal",
  "ions": ["K_plus", "Cl_minus"],
  "tags": ["soluble"],
  "melting_point_C": 770,
  "boiling_point_C": 1420,
  "density_g_cm3": 1.98,
  "appearance_ru": "Бесцветные кубические кристаллы",
  "industrial_ru": "Производство калийных удобрений, медицина (заменитель поваренной соли)",
  "production_ru": "Добыча природных минералов сильвина и карналлита",
  "fun_facts_ru": ["Минерал сильвин (KCl) — основной источник калийных удобрений", "Используется как заменитель поваренной соли в диетическом питании"]
}
