{
  "id": "kmno4",
  "formula": "KMnO\u2084",
  "name_ru": "Перманганат калия",
  "class": "salt",
  "subclass": "normal",
  "ions": ["K_plus", "MnO4_minus"],
  "tags": ["soluble", "strong_oxidizer", "purple"],
  "melting_point_C": 240,
  "boiling_point_C": null,
  "density_g_cm3": 2.703,
  "appearance_ru": "Тёмно-фиолетовые кристаллы с металлическим блеском",
  "hazards_ru": ["Сильный окислитель", "Может вызвать ожоги"],
  "industrial_ru": "Дезинфекция, аналитическая химия (титрование), очистка воды",
  "production_ru": "Окисление манганатов в щелочной среде",
  "fun_facts_ru": ["Известен в быту как «марганцовка»", "Водный раствор окрашивается в яркий фиолетовый цвет даже при очень малых концентрациях"]
}
