{
  "id": "nacl",
  "formula": "NaCl",
  "name_ru": "Хлорид натрия",
  "class": "salt",
  "subclass": "normal",
  "ions": ["Na_plus", "Cl_minus"],
  "tags": ["soluble"],
  "melting_point_C": 801,
  "boiling_point_C": 1413,
  "density_g_cm3": 2.165,
  "appearance_ru": "Бесцветные кубические кристаллы",
  "industrial_ru": "Пищевая промышленность, производство соды и хлора (электролиз)",
  "production_ru": "Добыча каменной соли или выпаривание морской воды",
  "fun_facts_ru": ["Ежегодное мировое потребление — около 300 млн тонн", "В Древнем Риме солдатам иногда платили солью — отсюда слово «salary» (жалованье)", "Кристаллы NaCl имеют кубическую форму, видимую даже в обычной поваренной соли"]
}
