{
  "id": "nh3",
  "formula": "NH\u2083",
  "name_ru": "Аммиак",
  "class": "other",
  "subclass": "hydride",
  "ions": [],
  "tags": ["gas", "pungent_odor", "reacts_with_water"],
  "melting_point_C": -77.73,
  "boiling_point_C": -33.34,
  "density_g_cm3": 0.73,
  "appearance_ru": "Бесцветный газ с резким запахом",
  "hazards_ru": ["Токсичное", "Раздражает дыхательные пути", "Вызывает ожоги слизистых"],
  "storage_ru": "Хранить в стальных баллонах, в хорошо проветриваемом помещении",
  "industrial_ru": "Производство азотных удобрений, азотной кислоты, взрывчатых веществ",
  "production_ru": "Синтез из азота и водорода при высоком давлении и температуре (метод Габера)",
  "fun_facts_ru": ["Нашатырный спирт (раствор NH₃) используется для приведения в чувство при обмороках", "Аммиак — одно из самых производимых химических веществ в мире (более 150 млн тонн/год)"]
}
