{
  "id": "pb_no3_2",
  "formula": "Pb(NO\u2083)\u2082",
  "name_ru": "Нитрат свинца(II)",
  "class": "salt",
  "subclass": "normal",
  "ions": ["Pb_2plus", "NO3_minus"],
  "tags": ["soluble"],
  "melting_point_C": 270,
  "boiling_point_C": null,
  "density_g_cm3": 4.53,
  "appearance_ru": "Бесцветные или белые кристаллы",
  "hazards_ru": ["Токсичное", "Канцерогенное", "Опасно для окружающей среды"],
  "storage_ru": "Хранить в закрытой таре, вдали от горючих веществ, в вентилируемом помещении",
  "industrial_ru": "Производство пигментов, флотационных реагентов, пиротехника",
  "production_ru": "Растворение свинца или оксида свинца в азотной кислоте",
  "fun_facts_ru": ["Одна из немногих растворимых солей свинца — большинство солей Pb²⁺ нерастворимы", "При нагревании разлагается с выделением бурого газа NO₂"]
}
