{
  "id": "sio2",
  "formula": "SiO\u2082",
  "name_ru": "Оксид кремния(IV)",
  "class": "oxide",
  "subclass": "acidic",
  "ions": [],
  "tags": ["insoluble", "no_water_reaction"],
  "melting_point_C": 1713,
  "boiling_point_C": 2950,
  "density_g_cm3": 2.65,
  "appearance_ru": "Бесцветные кристаллы или белый порошок",
  "industrial_ru": "Производство стекла, керамики, оптоволокна, электроники",
  "production_ru": "Добыча природного кварцевого песка, очистка для электроники",
  "fun_facts_ru": ["Кварц, горный хрусталь, аметист, агат — природные формы SiO₂", "SiO₂ — основа кремниевых чипов, на которых работает вся современная электроника", "Самый распространённый минерал земной коры"]
}
