{
  "id": "so2",
  "formula": "SO\u2082",
  "name_ru": "Оксид серы(IV)",
  "class": "oxide",
  "subclass": "acidic",
  "ions": [],
  "tags": ["gas", "toxic", "pungent_odor"],
  "melting_point_C": -75.5,
  "boiling_point_C": -10.0,
  "density_g_cm3": 0.002926,
  "appearance_ru": "Бесцветный газ с резким удушливым запахом",
  "hazards_ru": ["Токсичное", "Раздражает дыхательные пути"],
  "industrial_ru": "Производство серной кислоты, консервант (E220), отбеливание",
  "production_ru": "Обжиг серы или сульфидных руд",
  "fun_facts_ru": ["Один из главных загрязнителей атмосферы, вызывающих кислотные дожди", "Используется как консервант в виноделии уже более 2000 лет"]
}
