{
  "id": "so3",
  "formula": "SO\u2083",
  "name_ru": "Оксид серы(VI)",
  "class": "oxide",
  "subclass": "acidic",
  "ions": [],
  "tags": ["reacts_with_water"],
  "melting_point_C": 16.9,
  "boiling_point_C": 45,
  "density_g_cm3": 1.92,
  "appearance_ru": "Бесцветная жидкость, дымит на воздухе",
  "hazards_ru": ["Коррозионное", "Раздражает дыхательные пути", "Вызывает ожоги"],
  "storage_ru": "Хранить в герметичной таре, беречь от влаги",
  "industrial_ru": "Промежуточный продукт в производстве серной кислоты",
  "production_ru": "Каталитическое окисление SO₂ кислородом воздуха (контактный способ)",
  "fun_facts_ru": ["SO₃ жадно поглощает воду — при попадании в атмосферу образует серную кислоту (кислотные дожди)", "Раствор SO₃ в серной кислоте называется олеумом"]
}
