{
  "id": "zno",
  "formula": "ZnO",
  "name_ru": "Оксид цинка",
  "class": "oxide",
  "subclass": "amphoteric",
  "ions": [],
  "tags": ["insoluble", "amphoteric"],
  "melting_point_C": 1975,
  "boiling_point_C": null,
  "density_g_cm3": 5.61,
  "appearance_ru": "Белый порошок, желтеет при нагревании",
  "industrial_ru": "Производство резины (вулканизация), цинковых белил, косметики, фармацевтики",
  "production_ru": "Окисление паров цинка кислородом воздуха",
  "fun_facts_ru": ["Входит в состав цинковой мази — антисептического средства для кожи", "При нагревании желтеет, а при охлаждении снова белеет — термохромный эффект"]
}
